  54   54
1 1
    22.211309445807025    -0.000000000000001     0.000000000000000
    -0.000000000000001    22.211309445807021    -0.000000000000000
     0.000000000000000    -0.000000000000000    24.845624621073064
1 2
    -0.736668271375531     0.991293127386403     0.012836196953185
    -0.991293127386403    -0.213052791991056    -0.008577069537615
    -0.012836196953185    -0.008577069537615     0.723591269994460
1 3
    -0.736668271375532    -0.991293127386403    -0.012836196953185
     0.991293127386403    -0.213052791991055    -0.008577069537615
     0.012836196953185    -0.008577069537615     0.723591269994460
1 4
    -0.343956661837175     1.218025280867265     0.001009861633008
    -0.764560973905542    -0.605764401529412     0.015405007418246
     0.013846058586192    -0.006827937880631     0.723591269994460
1 5
    -0.343956661837174    -1.218025280867265    -0.001009861633008
     0.764560973905542    -0.605764401529413     0.015405007418246
    -0.013846058586192    -0.006827937880631     0.723591269994460
1 6
    -0.205368594327264     0.000000000000000     0.000000000000000
     0.000000000000000    -0.205368594327264    -0.000000000000000
     0.000000000000000    -0.000000000000000    -0.159125481600870
1 7
    -0.343956661837175    -0.764560973905542     0.013846058586192
     1.218025280867265    -0.605764401529412    -0.006827937880631
     0.001009861633008     0.015405007418246     0.723591269994460
1 8
    -0.205368594327264    -0.000000000000000    -0.000000000000000
    -0.000000000000000    -0.205368594327264     0.000000000000000
     0.000000000000000    -0.000000000000000    -0.159125481600870
1 9
    -0.343956661837174     0.764560973905542    -0.013846058586192
    -1.218025280867264    -0.605764401529412    -0.006827937880631
    -0.001009861633008     0.015405007418246     0.723591269994460
1 10
     0.003209982158191    -0.003374486330668    -0.023268362077754
    -0.003374486330668    -0.000686539024585     0.013433995109193
    -0.017135150063924     0.009892983502011     0.005502803719035
1 11
     0.004783511779692    -0.000000000000000     0.000000000000000
    -0.000000000000000    -0.003751142356655    -0.009110333150675
     0.000000000000000    -0.006964755209275    -0.000603971749660
1 12
     0.003209982158191     0.003374486330668     0.023268362077754
     0.003374486330668    -0.000686539024585     0.013433995109193
     0.017135150063924     0.009892983502011     0.005502803719035
1 13
    -0.002634799615972     0.000000000000000    -0.000000000000000
     0.000000000000000     0.005158242749579    -0.026867990218386
     0.000000000000000    -0.019785967004022     0.005502803719035
1 14
    -0.000248229751517    -0.007362231762481    -0.001047220495999
    -0.007362231762481     0.008252943228292    -0.000604613035266
    -0.005269847094403    -0.003042547638542    -0.017419236009907
1 15
    -0.000248229751517     0.007362231762481     0.001047220495999
     0.007362231762481     0.008252943228292    -0.000604613035266
     0.005269847094403    -0.003042547638542    -0.017419236009907
1 16
    -0.001617478822568    -0.003695613647295     0.007889779945424
    -0.003695613647295     0.002649848245606     0.004555166575337
     0.006031654942372     0.003482377604637    -0.000603971749660
1 17
    -0.001617478822568     0.003695613647295    -0.007889779945424
     0.003695613647295     0.002649848245605     0.004555166575337
    -0.006031654942372     0.003482377604637    -0.000603971749660
1 18
     0.012503529718196    -0.000000000000000     0.000000000000000
    -0.000000000000000    -0.004498816241422     0.001209226070532
     0.000000000000000     0.006085095277084    -0.017419236009907
1 19
    -0.027455100662155    -0.000000000000000     0.000000000000000
     0.000000000000000    -0.027455100662155    -0.000000000000000
     0.000000000000000    -0.000000000000000     0.068353960224684
1 20
    -0.010534468395814    -0.009404786673878    -0.007814034859052
    -0.004814931644992    -0.014045626854076     0.008088614017580
     0.000359964115216    -0.016094278607280    -0.015102271722411
1 21
    -0.010534468395814     0.009404786673878     0.007814034859052
     0.004814931644992    -0.014045626854076     0.008088614017580
    -0.000359964115216    -0.016094278607280    -0.015102271722411
1 22
    -0.019325155888911    -0.000260374145509    -0.003097927791105
     0.004329480883377    -0.005254939360979    -0.010811459702786
     0.013758072071881     0.008358877371868    -0.015102271722411
1 23
    -0.019325155888911     0.000260374145509     0.003097927791105
    -0.004329480883377    -0.005254939360979    -0.010811459702786
    -0.013758072071881     0.008358877371868    -0.015102271722411
1 24
     0.005371248601631     0.000000000000000     0.000000000000000
    -0.000000000000000     0.005371248601631     0.000000000000000
     0.000000000000000    -0.000000000000000     0.019558099144989
1 25
    -0.007010518590110    -0.002780378276058    -0.010911962650157
    -0.007370233304944    -0.017569576659780     0.002722845685206
     0.014118036187097     0.007735401235412    -0.015102271722411
1 26
    -0.012925451503424    -0.000000000000000     0.000000000000000
    -0.000000000000000    -0.012925451503424     0.000000000000000
     0.000000000000000    -0.000000000000000     0.000432442324024
1 27
    -0.007010518590110     0.002780378276058     0.010911962650157
     0.007370233304944    -0.017569576659780     0.002722845685206
    -0.014118036187097     0.007735401235412    -0.015102271722411
1 28
    -0.010560175725661    -0.000000000000000     0.000000000000000
    -0.000000000000000    -0.010560175725661    -0.000000000000000
     0.000000000000000    -0.000000000000000     0.002338424728099
1 29
    -0.010891958228232     0.001452844908899     0.000831194380334
     0.000223864140289    -0.009808270883073    -0.000898622126374
    -0.000092790176122     0.003576149508564    -0.009522244262158
1 30
    -0.010891958228232    -0.001452844908899    -0.000831194380334
    -0.000223864140289    -0.009808270883073    -0.000898622126374
     0.000092790176122     0.003576149508564    -0.009522244262158
1 31
    -0.009353156403687     0.000664563507342     0.000362632399676
    -0.000564417261269    -0.011347072707618     0.001169146512040
    -0.003050641234087    -0.001868433404026    -0.009522244262158
1 32
    -0.009353156403687    -0.000664563507342    -0.000362632399676
     0.000564417261269    -0.011347072707618     0.001169146512040
     0.003050641234087    -0.001868433404026    -0.009522244262158
1 33
    -0.008937776547046     0.000000000000000    -0.000000000000000
     0.000000000000000    -0.008937776547046    -0.000000000000000
     0.000000000000000     0.000000000000000    -0.008358287395152
1 34
    -0.010805229035039     0.000273937263325     0.001193826780010
     0.001502918031936    -0.009895000076266    -0.000270524385665
    -0.003143431410209    -0.001707716104538    -0.009522244262158
1 35
    -0.008211101258304    -0.000000000000000     0.000000000000000
    -0.000000000000000    -0.008211101258304    -0.000000000000000
     0.000000000000000    -0.000000000000000    -0.013872034256757
1 36
    -0.010805229035039    -0.000273937263325    -0.001193826780010
    -0.001502918031936    -0.009895000076266    -0.000270524385665
     0.003143431410209    -0.001707716104538    -0.009522244262158
1 37
    -3.962266462996155     1.347917455019956    -2.665095991072139
     1.347917455019956    -2.405825451993819     1.538693887861691
    -2.789136591279775     1.610308761782013    -4.344181635399616
1 38
    -0.095901268774361    -0.000000000000000    -0.000000000000000
    -0.000000000000000    -0.008286963610923    -0.008987731139078
     0.000000000000000     0.044680494906981    -0.230659982475698
1 39
    -3.962266462996154    -1.347917455019956     2.665095991072138
    -1.347917455019956    -2.405825451993820     1.538693887861691
     2.789136591279774     1.610308761782013    -4.344181635399616
1 40
    -1.627604946492653     0.000000000000000     0.000000000000000
     0.000000000000000    -4.740486968497320    -3.077387775723382
     0.000000000000000    -3.220617523564026    -4.344181635399616
1 41
    -0.021926246947256    -0.248357114321713    -0.030019778546774
    -0.248357114321713     0.264851846670343    -0.017331927224993
    -0.187244085207681    -0.108105422998820    -0.190438476058108
1 42
    -0.021926246947256     0.248357114321713     0.030019778546775
     0.248357114321713     0.264851846670343    -0.017331927224993
     0.187244085207681    -0.108105422998820    -0.190438476058108
1 43
    -0.030190539901783     0.037938107003230     0.007783603488826
     0.037938107003230    -0.073997692483502     0.004493865569539
    -0.038694443643106    -0.022340247453490    -0.230659982475698
1 44
    -0.030190539901783    -0.037938107003230    -0.007783603488826
    -0.037938107003230    -0.073997692483502     0.004493865569539
     0.038694443643106    -0.022340247453490    -0.230659982475698
1 45
     0.408240893479143     0.000000000000000    -0.000000000000000
    -0.000000000000000    -0.165315293756056     0.034663854449986
     0.000000000000000     0.216210845997639    -0.190438476058108
1 46
    -3.981338894966711     1.344912713254221     2.661285354717779
     1.344912713254221    -2.428367460898961    -1.536493815936718
     2.833972311009703    -1.636194676637398    -4.407510476921932
1 47
    -0.099819942152451    -0.000000000000000     0.000000000000000
    -0.000000000000000    -0.010884042331804     0.007602787631455
     0.000000000000000    -0.024052073499141    -0.213893003721984
1 48
    -3.981338894966710    -1.344912713254221    -2.661285354717779
    -1.344912713254221    -2.428367460898961    -1.536493815936718
    -2.833972311009703    -1.636194676637398    -4.407510476921932
1 49
    -1.651881743865087     0.000000000000000    -0.000000000000000
     0.000000000000000    -4.757824612000585     3.072987631873436
    -0.000000000000000     3.272389353274796    -4.407510476921932
1 50
    -0.027715083961015    -0.252649665962226     0.014410372113939
    -0.252649665962226     0.264019621346905     0.008319832219105
     0.176383968433892     0.101835331656042    -0.197338283615648
1 51
    -0.027715083961015     0.252649665962226    -0.014410372113939
     0.252649665962226     0.264019621346905     0.008319832219105
    -0.176383968433892     0.101835331656042    -0.197338283615648
1 52
    -0.033118017286966     0.038510374276554    -0.006584207228418
     0.038510374276554    -0.077585967197289    -0.003801393815728
     0.020829706663946     0.012026036749570    -0.213893003721983
1 53
    -0.033118017286966    -0.038510374276554     0.006584207228418
    -0.038510374276554    -0.077585967197290    -0.003801393815728
    -0.020829706663946     0.012026036749570    -0.213893003721983
1 54
     0.409886974000865     0.000000000000000     0.000000000000000
    -0.000000000000000    -0.173582436614975    -0.016639664438210
    -0.000000000000000    -0.203670663312083    -0.197338283615648
2 1
    -0.736668271375531    -0.991293127386403    -0.012836196953185
     0.991293127386403    -0.213052791991056    -0.008577069537615
     0.012836196953185    -0.008577069537615     0.723591269994460
2 2
    22.211309445807011     0.000000000000009    -0.000000000000000
     0.000000000000009    22.211309445807025    -0.000000000000000
    -0.000000000000000    -0.000000000000000    24.845624621073064
2 3
    -0.736668271375531     0.991293127386403     0.012836196953185
    -0.991293127386404    -0.213052791991055    -0.008577069537615
    -0.012836196953185    -0.008577069537615     0.723591269994460
2 4
    -0.205368594327264    -0.000000000000000    -0.000000000000000
    -0.000000000000000    -0.205368594327264     0.000000000000000
     0.000000000000000    -0.000000000000000    -0.159125481600870
2 5
    -0.343956661837174     1.218025280867265     0.001009861633008
    -0.764560973905542    -0.605764401529412     0.015405007418246
     0.013846058586192    -0.006827937880631     0.723591269994460
2 6
    -0.343956661837174    -1.218025280867265    -0.001009861633008
     0.764560973905542    -0.605764401529413     0.015405007418246
    -0.013846058586192    -0.006827937880631     0.723591269994460
2 7
    -0.343956661837174     0.764560973905541    -0.013846058586192
    -1.218025280867265    -0.605764401529413    -0.006827937880631
    -0.001009861633008     0.015405007418246     0.723591269994460
2 8
    -0.343956661837174    -0.764560973905542     0.013846058586192
     1.218025280867265    -0.605764401529413    -0.006827937880631
     0.001009861633008     0.015405007418246     0.723591269994460
2 9
    -0.205368594327264     0.000000000000000    -0.000000000000000
     0.000000000000000    -0.205368594327264    -0.000000000000000
    -0.000000000000000    -0.000000000000000    -0.159125481600870
2 10
     0.003209982158191     0.003374486330668     0.023268362077754
     0.003374486330668    -0.000686539024585     0.013433995109193
     0.017135150063924     0.009892983502011     0.005502803719035
2 11
     0.003209982158191    -0.003374486330668    -0.023268362077754
    -0.003374486330668    -0.000686539024585     0.013433995109193
    -0.017135150063924     0.009892983502011     0.005502803719035
2 12
     0.004783511779692    -0.000000000000000     0.000000000000000
    -0.000000000000000    -0.003751142356655    -0.009110333150675
     0.000000000000000    -0.006964755209275    -0.000603971749660
2 13
    -0.000248229751517     0.007362231762481     0.001047220495999
     0.007362231762481     0.008252943228292    -0.000604613035266
     0.005269847094403    -0.003042547638542    -0.017419236009907
2 14
    -0.002634799615972    -0.000000000000000    -0.000000000000000
    -0.000000000000000     0.005158242749579    -0.026867990218386
     0.000000000000000    -0.019785967004022     0.005502803719035
2 15
    -0.000248229751517    -0.007362231762481    -0.001047220495999
    -0.007362231762481     0.008252943228292    -0.000604613035266
    -0.005269847094403    -0.003042547638542    -0.017419236009907
2 16
     0.012503529718196    -0.000000000000000     0.000000000000000
    -0.000000000000000    -0.004498816241422     0.001209226070532
    -0.000000000000000     0.006085095277084    -0.017419236009907
2 17
    -0.001617478822568    -0.003695613647295     0.007889779945424
    -0.003695613647295     0.002649848245605     0.004555166575337
     0.006031654942372     0.003482377604637    -0.000603971749660
2 18
    -0.001617478822568     0.003695613647295    -0.007889779945424
     0.003695613647295     0.002649848245605     0.004555166575337
    -0.006031654942372     0.003482377604637    -0.000603971749660
2 19
    -0.010534468395814     0.009404786673878     0.007814034859052
     0.004814931644992    -0.014045626854076     0.008088614017580
    -0.000359964115216    -0.016094278607280    -0.015102271722411
2 20
    -0.027455100662155    -0.000000000000000    -0.000000000000000
    -0.000000000000000    -0.027455100662155     0.000000000000000
    -0.000000000000000     0.000000000000000     0.068353960224684
2 21
    -0.010534468395814    -0.009404786673878    -0.007814034859052
    -0.004814931644992    -0.014045626854076     0.008088614017580
     0.000359964115216    -0.016094278607280    -0.015102271722411
2 22
     0.005371248601631    -0.000000000000000    -0.000000000000000
    -0.000000000000000     0.005371248601631    -0.000000000000000
    -0.000000000000000     0.000000000000000     0.019558099144989
2 23
    -0.019325155888911    -0.000260374145509    -0.003097927791105
     0.004329480883377    -0.005254939360979    -0.010811459702786
     0.013758072071881     0.008358877371868    -0.015102271722411
2 24
    -0.019325155888911     0.000260374145509     0.003097927791105
    -0.004329480883377    -0.005254939360979    -0.010811459702786
    -0.013758072071881     0.008358877371868    -0.015102271722411
2 25
    -0.007010518590110     0.002780378276058     0.010911962650157
     0.007370233304944    -0.017569576659780     0.002722845685206
    -0.014118036187097     0.007735401235412    -0.015102271722411
2 26
    -0.007010518590110    -0.002780378276058    -0.010911962650157
    -0.007370233304945    -0.017569576659780     0.002722845685206
     0.014118036187097     0.007735401235412    -0.015102271722411
2 27
    -0.012925451503424    -0.000000000000000    -0.000000000000000
    -0.000000000000000    -0.012925451503424    -0.000000000000000
    -0.000000000000000    -0.000000000000000     0.000432442324024
2 28
    -0.010891958228232    -0.001452844908899    -0.000831194380334
    -0.000223864140289    -0.009808270883073    -0.000898622126374
     0.000092790176122     0.003576149508564    -0.009522244262158
2 29
    -0.010560175725661    -0.000000000000000     0.000000000000000
    -0.000000000000000    -0.010560175725661    -0.000000000000000
    -0.000000000000000    -0.000000000000000     0.002338424728099
2 30
    -0.010891958228232     0.001452844908899     0.000831194380334
     0.000223864140289    -0.009808270883073    -0.000898622126374
    -0.000092790176122     0.003576149508564    -0.009522244262158
2 31
    -0.008937776547045    -0.000000000000000     0.000000000000000
    -0.000000000000000    -0.008937776547046     0.000000000000000
    -0.000000000000000    -0.000000000000000    -0.008358287395152
2 32
    -0.009353156403687     0.000664563507342     0.000362632399676
    -0.000564417261269    -0.011347072707618     0.001169146512040
    -0.003050641234087    -0.001868433404026    -0.009522244262158
2 33
    -0.009353156403687    -0.000664563507342    -0.000362632399676
     0.000564417261269    -0.011347072707618     0.001169146512040
     0.003050641234087    -0.001868433404026    -0.009522244262158
2 34
    -0.010805229035039    -0.000273937263325    -0.001193826780010
    -0.001502918031936    -0.009895000076266    -0.000270524385665
     0.003143431410209    -0.001707716104538    -0.009522244262158
2 35
    -0.010805229035039     0.000273937263325     0.001193826780010
     0.001502918031936    -0.009895000076266    -0.000270524385665
    -0.003143431410209    -0.001707716104538    -0.009522244262158
2 36
    -0.008211101258304    -0.000000000000000     0.000000000000000
    -0.000000000000000    -0.008211101258305     0.000000000000000
    -0.000000000000000     0.000000000000000    -0.013872034256757
2 37
    -3.962266462996154    -1.347917455019957     2.665095991072138
    -1.347917455019957    -2.405825451993821     1.538693887861692
     2.789136591279775     1.610308761782013    -4.344181635399616
2 38
    -3.962266462996153     1.347917455019955    -2.665095991072137
     1.347917455019955    -2.405825451993820     1.538693887861691
    -2.789136591279774     1.610308761782012    -4.344181635399616
2 39
    -0.095901268774361    -0.000000000000000    -0.000000000000000
    -0.000000000000000    -0.008286963610923    -0.008987731139078
    -0.000000000000000     0.044680494906981    -0.230659982475698
2 40
    -0.021926246947256     0.248357114321713     0.030019778546775
     0.248357114321713     0.264851846670343    -0.017331927224993
     0.187244085207681    -0.108105422998820    -0.190438476058108
2 41
    -1.627604946492653    -0.000000000000001    -0.000000000000000
    -0.000000000000000    -4.740486968497322    -3.077387775723383
     0.000000000000000    -3.220617523564026    -4.344181635399616
2 42
    -0.021926246947256    -0.248357114321713    -0.030019778546775
    -0.248357114321713     0.264851846670343    -0.017331927224993
    -0.187244085207681    -0.108105422998820    -0.190438476058108
2 43
     0.408240893479143    -0.000000000000000    -0.000000000000000
     0.000000000000000    -0.165315293756056     0.034663854449986
    -0.000000000000000     0.216210845997639    -0.190438476058108
2 44
    -0.030190539901783     0.037938107003230     0.007783603488826
     0.037938107003230    -0.073997692483502     0.004493865569539
    -0.038694443643106    -0.022340247453490    -0.230659982475698
2 45
    -0.030190539901783    -0.037938107003230    -0.007783603488826
    -0.037938107003230    -0.073997692483502     0.004493865569539
     0.038694443643106    -0.022340247453490    -0.230659982475698
2 46
    -3.981338894966711    -1.344912713254222    -2.661285354717779
    -1.344912713254222    -2.428367460898962    -1.536493815936719
    -2.833972311009703    -1.636194676637398    -4.407510476921932
2 47
    -3.981338894966709     1.344912713254220     2.661285354717778
     1.344912713254220    -2.428367460898961    -1.536493815936717
     2.833972311009703    -1.636194676637397    -4.407510476921932
2 48
    -0.099819942152451    -0.000000000000000     0.000000000000000
    -0.000000000000000    -0.010884042331804     0.007602787631455
     0.000000000000000    -0.024052073499141    -0.213893003721984
2 49
    -0.027715083961015     0.252649665962226    -0.014410372113939
     0.252649665962226     0.264019621346905     0.008319832219105
    -0.176383968433892     0.101835331656042    -0.197338283615648
2 50
    -1.651881743865087    -0.000000000000001     0.000000000000000
    -0.000000000000000    -4.757824612000586     3.072987631873437
    -0.000000000000000     3.272389353274797    -4.407510476921932
2 51
    -0.027715083961015    -0.252649665962226     0.014410372113939
    -0.252649665962226     0.264019621346905     0.008319832219105
     0.176383968433892     0.101835331656042    -0.197338283615648
2 52
     0.409886974000865    -0.000000000000000     0.000000000000000
     0.000000000000000    -0.173582436614975    -0.016639664438210
    -0.000000000000000    -0.203670663312083    -0.197338283615648
2 53
    -0.033118017286966     0.038510374276554    -0.006584207228418
     0.038510374276554    -0.077585967197290    -0.003801393815728
     0.020829706663946     0.012026036749570    -0.213893003721983
2 54
    -0.033118017286966    -0.038510374276554     0.006584207228418
    -0.038510374276554    -0.077585967197290    -0.003801393815728
    -0.020829706663946     0.012026036749570    -0.213893003721983
3 1
    -0.736668271375532     0.991293127386403     0.012836196953185
    -0.991293127386403    -0.213052791991055    -0.008577069537615
    -0.012836196953185    -0.008577069537615     0.723591269994460
3 2
    -0.736668271375531    -0.991293127386404    -0.012836196953185
     0.991293127386403    -0.213052791991055    -0.008577069537615
     0.012836196953185    -0.008577069537615     0.723591269994460
3 3
    22.211309445807018    -0.000000000000000     0.000000000000000
    -0.000000000000000    22.211309445807021     0.000000000000001
     0.000000000000000     0.000000000000001    24.845624621073064
3 4
    -0.343956661837174    -1.218025280867265    -0.001009861633008
     0.764560973905542    -0.605764401529412     0.015405007418246
    -0.013846058586192    -0.006827937880631     0.723591269994460
3 5
    -0.205368594327264     0.000000000000000     0.000000000000000
     0.000000000000000    -0.205368594327264    -0.000000000000000
    -0.000000000000000    -0.000000000000000    -0.159125481600870
3 6
    -0.343956661837174     1.218025280867265     0.001009861633008
    -0.764560973905541    -0.605764401529412     0.015405007418246
     0.013846058586192    -0.006827937880631     0.723591269994460
3 7
    -0.205368594327264    -0.000000000000000     0.000000000000000
    -0.000000000000000    -0.205368594327264    -0.000000000000000
    -0.000000000000000    -0.000000000000000    -0.159125481600870
3 8
    -0.343956661837174     0.764560973905542    -0.013846058586192
    -1.218025280867265    -0.605764401529413    -0.006827937880631
    -0.001009861633008     0.015405007418246     0.723591269994460
3 9
    -0.343956661837174    -0.764560973905542     0.013846058586192
     1.218025280867265    -0.605764401529413    -0.006827937880631
     0.001009861633008     0.015405007418246     0.723591269994460
3 10
     0.004783511779692     0.000000000000000     0.000000000000000
     0.000000000000000    -0.003751142356655    -0.009110333150675
    -0.000000000000000    -0.006964755209275    -0.000603971749660
3 11
     0.003209982158191     0.003374486330668     0.023268362077754
     0.003374486330668    -0.000686539024585     0.013433995109193
     0.017135150063924     0.009892983502011     0.005502803719035
3 12
     0.003209982158191    -0.003374486330668    -0.023268362077754
    -0.003374486330668    -0.000686539024585     0.013433995109193
    -0.017135150063924     0.009892983502011     0.005502803719035
3 13
    -0.000248229751517    -0.007362231762481    -0.001047220495999
    -0.007362231762481     0.008252943228292    -0.000604613035266
    -0.005269847094403    -0.003042547638542    -0.017419236009907
3 14
    -0.000248229751517     0.007362231762481     0.001047220495999
     0.007362231762481     0.008252943228292    -0.000604613035266
     0.005269847094403    -0.003042547638542    -0.017419236009907
3 15
    -0.002634799615972     0.000000000000000     0.000000000000000
    -0.000000000000000     0.005158242749579    -0.026867990218386
    -0.000000000000000    -0.019785967004022     0.005502803719035
3 16
    -0.001617478822568     0.003695613647295    -0.007889779945424
     0.003695613647295     0.002649848245605     0.004555166575337
    -0.006031654942372     0.003482377604637    -0.000603971749660
3 17
     0.012503529718196    -0.000000000000000     0.000000000000000
    -0.000000000000000    -0.004498816241422     0.001209226070532
    -0.000000000000000     0.006085095277084    -0.017419236009907
3 18
    -0.001617478822568    -0.003695613647295     0.007889779945424
    -0.003695613647295     0.002649848245605     0.004555166575337
     0.006031654942372     0.003482377604637    -0.000603971749660
3 19
    -0.010534468395814    -0.009404786673878    -0.007814034859052
    -0.004814931644992    -0.014045626854076     0.008088614017580
     0.000359964115216    -0.016094278607280    -0.015102271722411
3 20
    -0.010534468395814     0.009404786673878     0.007814034859052
     0.004814931644992    -0.014045626854076     0.008088614017580
    -0.000359964115216    -0.016094278607280    -0.015102271722411
3 21
    -0.027455100662155     0.000000000000000     0.000000000000000
     0.000000000000000    -0.027455100662155    -0.000000000000000
    -0.000000000000000    -0.000000000000000     0.068353960224684
3 22
    -0.019325155888911     0.000260374145509     0.003097927791105
    -0.004329480883377    -0.005254939360979    -0.010811459702786
    -0.013758072071881     0.008358877371868    -0.015102271722411
3 23
     0.005371248601631     0.000000000000000     0.000000000000000
     0.000000000000000     0.005371248601631    -0.000000000000000
    -0.000000000000000    -0.000000000000000     0.019558099144989
3 24
    -0.019325155888911    -0.000260374145509    -0.003097927791105
     0.004329480883377    -0.005254939360979    -0.010811459702786
     0.013758072071881     0.008358877371868    -0.015102271722411
3 25
    -0.012925451503424    -0.000000000000000     0.000000000000000
     0.000000000000000    -0.012925451503424    -0.000000000000000
     0.000000000000000    -0.000000000000000     0.000432442324024
3 26
    -0.007010518590110     0.002780378276058     0.010911962650157
     0.007370233304944    -0.017569576659780     0.002722845685206
    -0.014118036187097     0.007735401235412    -0.015102271722411
3 27
    -0.007010518590110    -0.002780378276058    -0.010911962650157
    -0.007370233304944    -0.017569576659780     0.002722845685206
     0.014118036187097     0.007735401235412    -0.015102271722411
3 28
    -0.010891958228232     0.001452844908899     0.000831194380334
     0.000223864140289    -0.009808270883073    -0.000898622126374
    -0.000092790176122     0.003576149508564    -0.009522244262159
3 29
    -0.010891958228232    -0.001452844908899    -0.000831194380334
    -0.000223864140289    -0.009808270883073    -0.000898622126374
     0.000092790176122     0.003576149508564    -0.009522244262159
3 30
    -0.010560175725661     0.000000000000000     0.000000000000000
     0.000000000000000    -0.010560175725661     0.000000000000000
     0.000000000000000     0.000000000000000     0.002338424728099
3 31
    -0.009353156403687    -0.000664563507342    -0.000362632399676
     0.000564417261269    -0.011347072707618     0.001169146512040
     0.003050641234087    -0.001868433404026    -0.009522244262158
3 32
    -0.008937776547045     0.000000000000000    -0.000000000000000
     0.000000000000000    -0.008937776547046    -0.000000000000000
     0.000000000000000    -0.000000000000000    -0.008358287395152
3 33
    -0.009353156403687     0.000664563507342     0.000362632399676
    -0.000564417261269    -0.011347072707618     0.001169146512040
    -0.003050641234087    -0.001868433404026    -0.009522244262158
3 34
    -0.008211101258304    -0.000000000000000     0.000000000000000
    -0.000000000000000    -0.008211101258305     0.000000000000000
    -0.000000000000000    -0.000000000000000    -0.013872034256757
3 35
    -0.010805229035039    -0.000273937263325    -0.001193826780010
    -0.001502918031936    -0.009895000076266    -0.000270524385665
     0.003143431410209    -0.001707716104538    -0.009522244262158
3 36
    -0.010805229035039     0.000273937263325     0.001193826780010
     0.001502918031936    -0.009895000076266    -0.000270524385665
    -0.003143431410209    -0.001707716104538    -0.009522244262158
3 37
    -0.095901268774361     0.000000000000000     0.000000000000000
     0.000000000000000    -0.008286963610923    -0.008987731139078
    -0.000000000000000     0.044680494906981    -0.230659982475698
3 38
    -3.962266462996154    -1.347917455019957     2.665095991072138
    -1.347917455019957    -2.405825451993820     1.538693887861692